
     Program PHONON v.6.6 starts on  4Dec2023 at  5:19:21 

     This program is part of the open-source Quantum ESPRESSO suite
     for quantum simulation of materials; please cite
         "P. Giannozzi et al., J. Phys.:Condens. Matter 21 395502 (2009);
         "P. Giannozzi et al., J. Phys.:Condens. Matter 29 465901 (2017);
          URL http://www.quantum-espresso.org", 
     in publications or presentations arising from this work. More details at
     http://www.quantum-espresso.org/quote

     Parallel version (MPI), running on     1 processors

     MPI processes distributed on     1 nodes
     Fft bands division:     nmany     =       1

     Reading xml data from directory:

     /Users/virgrammid/Desktop/Lab_7/tmp/si.save/

     IMPORTANT: XC functional enforced from input :
     Exchange-correlation= PBE
                           (   1   4   3   4   0   0   0)
     Any further DFT definition will be discarded
     Please, verify this is what you really want


     G-vector sticks info
     --------------------
     sticks:   dense  smooth     PW     G-vecs:    dense   smooth      PW
     Sum         439     439    151                 6183     6183    1211

     Reading collected, re-writing distributed wavefunctions
        3 /   3 q-points for this run, from  1 to  3:
       N       xq(1)         xq(2)         xq(3) 
       1   0.000000000   0.000000000   0.000000000
       2   0.500000000  -0.500000000   0.500000000
       3   0.000000000  -1.000000000   0.000000000


     Calculation of q =    0.0000000   0.0000000   0.0000000

     phonons of Si                                                              

     bravais-lattice index     =            2
     lattice parameter (alat)  =      10.3270  a.u.
     unit-cell volume          =     275.3357 (a.u.)^3
     number of atoms/cell      =            2
     number of atomic types    =            1
     kinetic-energy cut-off    =      30.0000  Ry
     charge density cut-off    =     120.0000  Ry
     convergence threshold     =      1.0E-12
     beta                      =       0.7000
     number of iterations used =            4
     Exchange-correlation= PBE
                           (   1   4   3   4   0   0   0)


     celldm(1)=   10.32700  celldm(2)=    0.00000  celldm(3)=    0.00000
     celldm(4)=    0.00000  celldm(5)=    0.00000  celldm(6)=    0.00000

     crystal axes: (cart. coord. in units of alat)
               a(1) = ( -0.5000  0.0000  0.5000 )  
               a(2) = (  0.0000  0.5000  0.5000 )  
               a(3) = ( -0.5000  0.5000  0.0000 )  

     reciprocal axes: (cart. coord. in units 2 pi/alat)
               b(1) = ( -1.0000 -1.0000  1.0000 )  
               b(2) = (  1.0000  1.0000  1.0000 )  
               b(3) = ( -1.0000  1.0000 -1.0000 )  


     Atoms inside the unit cell: 

     Cartesian axes

     site n.  atom      mass           positions (alat units)
        1     Si  28.0860   tau(    1) = (    0.00000    0.00000    0.00000  )
        2     Si  28.0860   tau(    2) = (    0.25000    0.25000    0.25000  )

     Computing dynamical matrix for 
                    q = (   0.0000000   0.0000000   0.0000000 )

     49 Sym.Ops. (with q -> -q+G )


     G cutoff =  324.1678  (   6183 G-vectors)     FFT grid: ( 32, 32, 32)
     number of k points=   897

     PseudoPot. # 1 for Si read from file:
     /Users/virgrammid/Desktop/Lab_7/pseudo/Si.rel-pbe-rrkj.UPF
     MD5 check sum: ca11b4d55ae68281b492616f935c6016
     Pseudo is Norm-conserving, Zval =  4.0
     Generated by new atomic code, or converted to UPF format
     Using radial grid of 1141 points,  2 beta functions with: 
                l(1) =   0
                l(2) =   1

     Mode symmetry, O_h (m-3m)  point group:


     Electric field:
     Dielectric constant
     Born effective charges in two ways 


     Atomic displacements:
     There are    2 irreducible representations

     Representation     1      3 modes -  Done

     Representation     2      3 modes -  Done


     PHONON       :      1.92s CPU      0.85s WALL


          Dielectric constant in cartesian axis 

          (      13.004792969       0.000000000       0.000000000 )
          (       0.000000000      13.004792969       0.000000000 )
          (       0.000000000       0.000000000      13.004792969 )

          Effective charges (d Force / dE) in cartesian axis

           atom      1   Si 
      Ex  (        0.00012        0.00000        0.00000 )
      Ey  (        0.00000        0.00012       -0.00000 )
      Ez  (        0.00000       -0.00000        0.00012 )
           atom      2   Si 
      Ex  (        0.00012       -0.00000       -0.00000 )
      Ey  (       -0.00000        0.00012        0.00000 )
      Ez  (       -0.00000        0.00000        0.00012 )

     Number of q in the star =    1
     List of q in the star:
          1   0.000000000   0.000000000   0.000000000

          Dielectric constant in cartesian axis 

          (      13.004792969       0.000000000       0.000000000 )
          (       0.000000000      13.004792969       0.000000000 )
          (       0.000000000       0.000000000      13.004792969 )

          Effective charges (d Force / dE) in cartesian axis

           atom      1   Si 
      Ex  (        0.00012        0.00000        0.00000 )
      Ey  (        0.00000        0.00012       -0.00000 )
      Ez  (        0.00000       -0.00000        0.00012 )
           atom      2   Si 
      Ex  (        0.00012       -0.00000       -0.00000 )
      Ey  (       -0.00000        0.00012        0.00000 )
      Ez  (       -0.00000        0.00000        0.00012 )

          Effective charges (d P / du) in cartesian axis 

           atom      1   Si 
      Px  (        0.00226       -0.00000        0.00000 )
      Py  (       -0.00000        0.00226        0.00000 )
      Pz  (        0.00000        0.00000        0.00226 )
           atom      2   Si 
      Px  (        0.00226       -0.00000        0.00000 )
      Py  (       -0.00000        0.00226       -0.00000 )
      Pz  (        0.00000        0.00000        0.00226 )

     Diagonalizing the dynamical matrix

     q = (    0.000000000   0.000000000   0.000000000 ) 

 **************************************************************************
     freq (    1) =       0.474288 [THz] =      15.820537 [cm-1]
     freq (    2) =       0.474288 [THz] =      15.820537 [cm-1]
     freq (    3) =       0.474288 [THz] =      15.820537 [cm-1]
     freq (    4) =      15.029751 [THz] =     501.338537 [cm-1]
     freq (    5) =      15.029751 [THz] =     501.338537 [cm-1]
     freq (    6) =      15.029751 [THz] =     501.338537 [cm-1]
 **************************************************************************

     Mode symmetry, O_h (m-3m)  point group:

     freq (   1-   3) =         15.8  [cm-1]   --> T_1u G_15  G_4- I  
     freq (   4-   6) =        501.3  [cm-1]   --> T_2g G_25' G_5+ R  

     Calculation of q =    0.5000000  -0.5000000   0.5000000

     Subspace diagonalization in iterative solution of the eigenvalue problem:
     a serial algorithm will be used


     G-vector sticks info
     --------------------
     sticks:   dense  smooth     PW     G-vecs:    dense   smooth      PW
     Sum         439     439    163                 6183     6183    1459


     Title: 
     phonons of Si                                                              


     bravais-lattice index     =            2
     lattice parameter (alat)  =      10.3270  a.u.
     unit-cell volume          =     275.3357 (a.u.)^3
     number of atoms/cell      =            2
     number of atomic types    =            1
     number of electrons       =         8.00
     number of Kohn-Sham states=            8
     kinetic-energy cutoff     =      30.0000  Ry
     charge density cutoff     =     120.0000  Ry
     Exchange-correlation= PBE
                           (   1   4   3   4   0   0   0)

     celldm(1)=  10.327000  celldm(2)=   0.000000  celldm(3)=   0.000000
     celldm(4)=   0.000000  celldm(5)=   0.000000  celldm(6)=   0.000000

     crystal axes: (cart. coord. in units of alat)
               a(1) = (  -0.500000   0.000000   0.500000 )  
               a(2) = (   0.000000   0.500000   0.500000 )  
               a(3) = (  -0.500000   0.500000   0.000000 )  

     reciprocal axes: (cart. coord. in units 2 pi/alat)
               b(1) = ( -1.000000 -1.000000  1.000000 )  
               b(2) = (  1.000000  1.000000  1.000000 )  
               b(3) = ( -1.000000  1.000000 -1.000000 )  


     PseudoPot. # 1 for Si read from file:
     /Users/virgrammid/Desktop/Lab_7/pseudo/Si.rel-pbe-rrkj.UPF
     MD5 check sum: ca11b4d55ae68281b492616f935c6016
     Pseudo is Norm-conserving, Zval =  4.0
     Generated by new atomic code, or converted to UPF format
     Using radial grid of 1141 points,  2 beta functions with: 
                l(1) =   0
                l(2) =   1

     atomic species   valence    mass     pseudopotential
        Si             4.00    28.08600     Si( 1.00)

     48 Sym. Ops., with inversion, found



   Cartesian axes

     site n.     atom                  positions (alat units)
         1           Si  tau(   1) = (   0.0000000   0.0000000   0.0000000  )
         2           Si  tau(   2) = (   0.2500000   0.2500000   0.2500000  )

     number of k points=  6018

     Number of k-points >= 100: set verbosity='high' to print them.

     Dense  grid:     6183 G-vectors     FFT dimensions: (  32,  32,  32)

     Estimated max dynamical RAM per process >       4.03 MB

     The potential is recalculated from file :
     /Users/virgrammid/Desktop/Lab_7/tmp/_ph0/si.save/charge-density

     Starting wfcs are    8 atomic wfcs

     Band Structure Calculation
     Davidson diagonalization with overlap

     ethr =  1.25E-10,  avg # of iterations = 18.5

     total cpu time spent up to now is      418.5 secs

     End of band structure calculation

     Number of k-points >= 100: set verbosity='high' to print the bands.

     highest occupied, lowest unoccupied level (ev):     6.0361    6.6512

     Writing output data file /Users/virgrammid/Desktop/Lab_7/tmp/_ph0/si.save/

     phonons of Si                                                              

     bravais-lattice index     =            2
     lattice parameter (alat)  =      10.3270  a.u.
     unit-cell volume          =     275.3357 (a.u.)^3
     number of atoms/cell      =            2
     number of atomic types    =            1
     kinetic-energy cut-off    =      30.0000  Ry
     charge density cut-off    =     120.0000  Ry
     convergence threshold     =      1.0E-12
     beta                      =       0.7000
     number of iterations used =            4
     Exchange-correlation= PBE
                           (   1   4   3   4   0   0   0)


     celldm(1)=   10.32700  celldm(2)=    0.00000  celldm(3)=    0.00000
     celldm(4)=    0.00000  celldm(5)=    0.00000  celldm(6)=    0.00000

     crystal axes: (cart. coord. in units of alat)
               a(1) = ( -0.5000  0.0000  0.5000 )  
               a(2) = (  0.0000  0.5000  0.5000 )  
               a(3) = ( -0.5000  0.5000  0.0000 )  

     reciprocal axes: (cart. coord. in units 2 pi/alat)
               b(1) = ( -1.0000 -1.0000  1.0000 )  
               b(2) = (  1.0000  1.0000  1.0000 )  
               b(3) = ( -1.0000  1.0000 -1.0000 )  


     Atoms inside the unit cell: 

     Cartesian axes

     site n.  atom      mass           positions (alat units)
        1     Si  28.0860   tau(    1) = (    0.00000    0.00000    0.00000  )
        2     Si  28.0860   tau(    2) = (    0.25000    0.25000    0.25000  )

     Computing dynamical matrix for 
                    q = (   0.5000000  -0.5000000   0.5000000 )

     13 Sym.Ops. (with q -> -q+G )


     G cutoff =  324.1678  (   6183 G-vectors)     FFT grid: ( 32, 32, 32)
     number of k points=  6018

     PseudoPot. # 1 for Si read from file:
     /Users/virgrammid/Desktop/Lab_7/pseudo/Si.rel-pbe-rrkj.UPF
     MD5 check sum: ca11b4d55ae68281b492616f935c6016
     Pseudo is Norm-conserving, Zval =  4.0
     Generated by new atomic code, or converted to UPF format
     Using radial grid of 1141 points,  2 beta functions with: 
                l(1) =   0
                l(2) =   1


     Atomic displacements:
     There are    4 irreducible representations

     Representation     1      1 modes -  To be done

     Representation     2      1 modes -  To be done

     Representation     3      2 modes -  To be done

     Representation     4      2 modes -  To be done



     Alpha used in Ewald sum =   1.3000
     PHONON       :  51m 5.94s CPU   7m 1.22s WALL



     Representation #   1 mode #   1

     Self-consistent Calculation

      iter #   1 total cpu time :   475.3 secs   av.it.:   4.9
      thresh= 1.000E-02 alpha_mix =  0.700 |ddv_scf|^2 =  5.494E-06

      iter #   2 total cpu time :   517.9 secs   av.it.:   8.6
      thresh= 2.344E-04 alpha_mix =  0.700 |ddv_scf|^2 =  4.566E-06

      iter #   3 total cpu time :   557.3 secs   av.it.:   8.0
      thresh= 2.137E-04 alpha_mix =  0.700 |ddv_scf|^2 =  1.985E-09

      iter #   4 total cpu time :   596.7 secs   av.it.:   8.1
      thresh= 4.455E-06 alpha_mix =  0.700 |ddv_scf|^2 =  2.423E-11

      iter #   5 total cpu time :   636.1 secs   av.it.:   8.0
      thresh= 4.923E-07 alpha_mix =  0.700 |ddv_scf|^2 =  1.005E-13

     End of self-consistent calculation

     Convergence has been achieved 


     Representation #   2 mode #   2

     Self-consistent Calculation

      iter #   1 total cpu time :   690.3 secs   av.it.:   5.7
      thresh= 1.000E-02 alpha_mix =  0.700 |ddv_scf|^2 =  9.039E-05

      iter #   2 total cpu time :   733.3 secs   av.it.:   8.8
      thresh= 9.507E-04 alpha_mix =  0.700 |ddv_scf|^2 =  2.896E-04

      iter #   3 total cpu time :   771.6 secs   av.it.:   7.7
      thresh= 1.702E-03 alpha_mix =  0.700 |ddv_scf|^2 =  1.357E-08

      iter #   4 total cpu time :   813.6 secs   av.it.:   8.7
      thresh= 1.165E-05 alpha_mix =  0.700 |ddv_scf|^2 =  6.076E-10

      iter #   5 total cpu time :   856.7 secs   av.it.:   8.8
      thresh= 2.465E-06 alpha_mix =  0.700 |ddv_scf|^2 =  7.015E-11

      iter #   6 total cpu time :   896.7 secs   av.it.:   8.2
      thresh= 8.376E-07 alpha_mix =  0.700 |ddv_scf|^2 =  6.615E-14

     End of self-consistent calculation

     Convergence has been achieved 


     Representation #   3 modes #   3   4

     Self-consistent Calculation

      iter #   1 total cpu time :  1016.3 secs   av.it.:   5.2
      thresh= 1.000E-02 alpha_mix =  0.700 |ddv_scf|^2 =  2.700E-07

      iter #   2 total cpu time :  1114.5 secs   av.it.:   9.8
      thresh= 5.197E-05 alpha_mix =  0.700 |ddv_scf|^2 =  2.238E-08

      iter #   3 total cpu time :  1207.5 secs   av.it.:   9.6
      thresh= 1.496E-05 alpha_mix =  0.700 |ddv_scf|^2 =  2.349E-10

      iter #   4 total cpu time :  1293.9 secs   av.it.:   8.9
      thresh= 1.533E-06 alpha_mix =  0.700 |ddv_scf|^2 =  1.465E-13

     End of self-consistent calculation

     Convergence has been achieved 


     Representation #   4 modes #   5   6

     Self-consistent Calculation

      iter #   1 total cpu time :  1393.6 secs   av.it.:   4.6
      thresh= 1.000E-02 alpha_mix =  0.700 |ddv_scf|^2 =  3.468E-08

      iter #   2 total cpu time :  1489.8 secs   av.it.:   9.7
      thresh= 1.862E-05 alpha_mix =  0.700 |ddv_scf|^2 =  1.310E-09

      iter #   3 total cpu time :  1580.9 secs   av.it.:   9.3
      thresh= 3.619E-06 alpha_mix =  0.700 |ddv_scf|^2 =  1.414E-10

      iter #   4 total cpu time :  1668.5 secs   av.it.:   8.8
      thresh= 1.189E-06 alpha_mix =  0.700 |ddv_scf|^2 =  7.555E-14

     End of self-consistent calculation

     Convergence has been achieved 

     Number of q in the star =    4
     List of q in the star:
          1   0.500000000  -0.500000000   0.500000000
          2   0.500000000   0.500000000  -0.500000000
          3   0.500000000   0.500000000   0.500000000
          4   0.500000000  -0.500000000  -0.500000000

     Diagonalizing the dynamical matrix

     q = (    0.500000000  -0.500000000   0.500000000 ) 

 **************************************************************************
     freq (    1) =       3.369183 [THz] =     112.383838 [cm-1]
     freq (    2) =       3.369183 [THz] =     112.383838 [cm-1]
     freq (    3) =      11.092207 [THz] =     369.996195 [cm-1]
     freq (    4) =      11.929676 [THz] =     397.931168 [cm-1]
     freq (    5) =      14.256236 [THz] =     475.536844 [cm-1]
     freq (    6) =      14.256236 [THz] =     475.536844 [cm-1]
 **************************************************************************

     Calculation of q =    0.0000000  -1.0000000   0.0000000

     G-vector sticks info
     --------------------
     sticks:   dense  smooth     PW     G-vecs:    dense   smooth      PW
     Sum         439     439    163                 6183     6183    1459


     Title: 
     phonons of Si                                                              


     bravais-lattice index     =            2
     lattice parameter (alat)  =      10.3270  a.u.
     unit-cell volume          =     275.3357 (a.u.)^3
     number of atoms/cell      =            2
     number of atomic types    =            1
     number of electrons       =         8.00
     number of Kohn-Sham states=            8
     kinetic-energy cutoff     =      30.0000  Ry
     charge density cutoff     =     120.0000  Ry
     Exchange-correlation= PBE
                           (   1   4   3   4   0   0   0)

     celldm(1)=  10.327000  celldm(2)=   0.000000  celldm(3)=   0.000000
     celldm(4)=   0.000000  celldm(5)=   0.000000  celldm(6)=   0.000000

     crystal axes: (cart. coord. in units of alat)
               a(1) = (  -0.500000   0.000000   0.500000 )  
               a(2) = (   0.000000   0.500000   0.500000 )  
               a(3) = (  -0.500000   0.500000   0.000000 )  

     reciprocal axes: (cart. coord. in units 2 pi/alat)
               b(1) = ( -1.000000 -1.000000  1.000000 )  
               b(2) = (  1.000000  1.000000  1.000000 )  
               b(3) = ( -1.000000  1.000000 -1.000000 )  


     PseudoPot. # 1 for Si read from file:
     /Users/virgrammid/Desktop/Lab_7/pseudo/Si.rel-pbe-rrkj.UPF
     MD5 check sum: ca11b4d55ae68281b492616f935c6016
     Pseudo is Norm-conserving, Zval =  4.0
     Generated by new atomic code, or converted to UPF format
     Using radial grid of 1141 points,  2 beta functions with: 
                l(1) =   0
                l(2) =   1

     atomic species   valence    mass     pseudopotential
        Si             4.00    28.08600     Si( 1.00)

     48 Sym. Ops., with inversion, found



   Cartesian axes

     site n.     atom                  positions (alat units)
         1           Si  tau(   1) = (   0.0000000   0.0000000   0.0000000  )
         2           Si  tau(   2) = (   0.2500000   0.2500000   0.2500000  )

     number of k points=  4786

     Number of k-points >= 100: set verbosity='high' to print them.

     Dense  grid:     6183 G-vectors     FFT dimensions: (  32,  32,  32)

     Estimated max dynamical RAM per process >       4.03 MB

     The potential is recalculated from file :
     /Users/virgrammid/Desktop/Lab_7/tmp/_ph0/si.save/charge-density

     Starting wfcs are    8 atomic wfcs

     Band Structure Calculation
     Davidson diagonalization with overlap

     ethr =  1.25E-10,  avg # of iterations = 18.4

     total cpu time spent up to now is      733.6 secs

     End of band structure calculation

     Number of k-points >= 100: set verbosity='high' to print the bands.

     highest occupied, lowest unoccupied level (ev):     6.0361    6.6512

     Writing output data file /Users/virgrammid/Desktop/Lab_7/tmp/_ph0/si.save/

     phonons of Si                                                              

     bravais-lattice index     =            2
     lattice parameter (alat)  =      10.3270  a.u.
     unit-cell volume          =     275.3357 (a.u.)^3
     number of atoms/cell      =            2
     number of atomic types    =            1
     kinetic-energy cut-off    =      30.0000  Ry
     charge density cut-off    =     120.0000  Ry
     convergence threshold     =      1.0E-12
     beta                      =       0.7000
     number of iterations used =            4
     Exchange-correlation= PBE
                           (   1   4   3   4   0   0   0)


     celldm(1)=   10.32700  celldm(2)=    0.00000  celldm(3)=    0.00000
     celldm(4)=    0.00000  celldm(5)=    0.00000  celldm(6)=    0.00000

     crystal axes: (cart. coord. in units of alat)
               a(1) = ( -0.5000  0.0000  0.5000 )  
               a(2) = (  0.0000  0.5000  0.5000 )  
               a(3) = ( -0.5000  0.5000  0.0000 )  

     reciprocal axes: (cart. coord. in units 2 pi/alat)
               b(1) = ( -1.0000 -1.0000  1.0000 )  
               b(2) = (  1.0000  1.0000  1.0000 )  
               b(3) = ( -1.0000  1.0000 -1.0000 )  


     Atoms inside the unit cell: 

     Cartesian axes

     site n.  atom      mass           positions (alat units)
        1     Si  28.0860   tau(    1) = (    0.00000    0.00000    0.00000  )
        2     Si  28.0860   tau(    2) = (    0.25000    0.25000    0.25000  )

     Computing dynamical matrix for 
                    q = (   0.0000000  -1.0000000   0.0000000 )

     17 Sym.Ops. (with q -> -q+G )


     G cutoff =  324.1678  (   6183 G-vectors)     FFT grid: ( 32, 32, 32)
     number of k points=  4786

     PseudoPot. # 1 for Si read from file:
     /Users/virgrammid/Desktop/Lab_7/pseudo/Si.rel-pbe-rrkj.UPF
     MD5 check sum: ca11b4d55ae68281b492616f935c6016
     Pseudo is Norm-conserving, Zval =  4.0
     Generated by new atomic code, or converted to UPF format
     Using radial grid of 1141 points,  2 beta functions with: 
                l(1) =   0
                l(2) =   1


     Atomic displacements:
     There are    3 irreducible representations

     Representation     1      2 modes -  To be done

     Representation     2      2 modes -  To be done

     Representation     3      2 modes -  To be done



     Alpha used in Ewald sum =   1.3000
     PHONON       :      2h38m CPU  33m 5.88s WALL



     Representation #   1 modes #   1   2

     Self-consistent Calculation

      iter #   1 total cpu time :  2078.7 secs   av.it.:   5.5
      thresh= 1.000E-02 alpha_mix =  0.700 |ddv_scf|^2 =  9.062E-07

      iter #   2 total cpu time :  2157.5 secs   av.it.:   9.9
      thresh= 9.519E-05 alpha_mix =  0.700 |ddv_scf|^2 =  2.488E-07

      iter #   3 total cpu time :  2232.3 secs   av.it.:   9.5
      thresh= 4.988E-05 alpha_mix =  0.700 |ddv_scf|^2 =  3.241E-10

      iter #   4 total cpu time :  2303.1 secs   av.it.:   9.0
      thresh= 1.800E-06 alpha_mix =  0.700 |ddv_scf|^2 =  3.726E-13

     End of self-consistent calculation

     Convergence has been achieved 


     Representation #   2 modes #   3   4

     Self-consistent Calculation

      iter #   1 total cpu time :  2378.4 secs   av.it.:   5.5
      thresh= 1.000E-02 alpha_mix =  0.700 |ddv_scf|^2 =  4.283E-06

      iter #   2 total cpu time :  2456.6 secs   av.it.:   9.7
      thresh= 2.069E-04 alpha_mix =  0.700 |ddv_scf|^2 =  5.829E-06

      iter #   3 total cpu time :  3551.0 secs   av.it.:   8.9
      thresh= 2.414E-04 alpha_mix =  0.700 |ddv_scf|^2 =  1.731E-09

      iter #   4 total cpu time :  3623.3 secs   av.it.:   9.4
      thresh= 4.160E-06 alpha_mix =  0.700 |ddv_scf|^2 =  1.046E-10

      iter #   5 total cpu time :  4614.6 secs   av.it.:   9.2
      thresh= 1.023E-06 alpha_mix =  0.700 |ddv_scf|^2 =  4.869E-13

     End of self-consistent calculation

     Convergence has been achieved 


     Representation #   3 modes #   5   6

     Self-consistent Calculation

      iter #   1 total cpu time :  4671.8 secs   av.it.:   4.2
      thresh= 1.000E-02 alpha_mix =  0.700 |ddv_scf|^2 =  8.358E-09

      iter #   2 total cpu time :  4772.4 secs   av.it.:   9.5
      thresh= 9.142E-06 alpha_mix =  0.700 |ddv_scf|^2 =  9.073E-10

      iter #   3 total cpu time :  4845.3 secs   av.it.:   9.0
      thresh= 3.012E-06 alpha_mix =  0.700 |ddv_scf|^2 =  1.006E-11

      iter #   4 total cpu time :  4923.7 secs   av.it.:   9.3
      thresh= 3.172E-07 alpha_mix =  0.700 |ddv_scf|^2 =  2.489E-14

     End of self-consistent calculation

     Convergence has been achieved 

     Number of q in the star =    3
     List of q in the star:
          1   0.000000000  -1.000000000   0.000000000
          2  -1.000000000   0.000000000   0.000000000
          3   0.000000000   0.000000000   1.000000000

     Diagonalizing the dynamical matrix

     q = (    0.000000000  -1.000000000   0.000000000 ) 

 **************************************************************************
     freq (    1) =       4.410114 [THz] =     147.105578 [cm-1]
     freq (    2) =       4.410114 [THz] =     147.105578 [cm-1]
     freq (    3) =      11.995772 [THz] =     400.135875 [cm-1]
     freq (    4) =      11.995772 [THz] =     400.135875 [cm-1]
     freq (    5) =      13.342468 [THz] =     445.056818 [cm-1]
     freq (    6) =      13.342468 [THz] =     445.056818 [cm-1]
 **************************************************************************

     init_run     :      1.08s CPU      0.50s WALL (       2 calls)
     electrons    :   5409.27s CPU    732.71s WALL (       2 calls)

     Called by init_run:
     wfcinit      :      0.00s CPU      0.00s WALL (       2 calls)
     potinit      :      0.02s CPU      0.02s WALL (       2 calls)
     hinit0       :      0.04s CPU      0.04s WALL (       2 calls)

     Called by electrons:
     c_bands      :   5409.25s CPU    732.71s WALL (       2 calls)
     v_of_rho     :      0.02s CPU      0.03s WALL (       3 calls)

     Called by c_bands:
     init_us_2    :     27.10s CPU      7.35s WALL (  129103 calls)
     cegterg      :   5011.24s CPU    682.62s WALL (   13646 calls)

     Called by *egterg:
     cdiaghg      :    213.46s CPU     29.32s WALL (  210304 calls)
     h_psi        :   8513.40s CPU   2186.68s WALL ( 1574242 calls)
     g_psi        :     20.65s CPU      3.18s WALL (  199500 calls)

     Called by h_psi:
     h_psi:calbec :    198.93s CPU     38.88s WALL ( 1574242 calls)
     vloc_psi     :   8088.35s CPU   2102.16s WALL ( 1574242 calls)
     add_vuspsi   :    197.10s CPU     37.07s WALL ( 1574242 calls)

     General routines
     calbec       :    240.39s CPU     52.88s WALL ( 3108202 calls)
     fft          :      0.77s CPU      0.25s WALL (     624 calls)
     ffts         :    110.05s CPU     16.22s WALL (   32454 calls)
     fftw         :   8226.70s CPU   3182.42s WALL (14688514 calls)
     davcio       :    760.95s CPU    972.52s WALL (  635004 calls)

     Parallel routines

     PHONON       :      3h29m CPU      1h22m WALL

     INITIALIZATION: 
     phq_setup    :      0.06s CPU      0.07s WALL (       3 calls)
     phq_init     :      9.94s CPU      2.63s WALL (       2 calls)

     phq_init     :      9.94s CPU      2.63s WALL (       2 calls)
     init_vloc    :      0.00s CPU      0.00s WALL (       3 calls)
     init_us_1    :      0.02s CPU      0.02s WALL (       3 calls)

     DYNAMICAL MATRIX:
     dynmat0      :      5.76s CPU      1.47s WALL (       2 calls)
     phqscf       :   7126.11s CPU   4187.16s WALL (       3 calls)
     dynmatrix    :      0.05s CPU      0.02s WALL (       3 calls)

     phqscf       :   7126.11s CPU   4187.16s WALL (       3 calls)
     solve_linter :   7105.54s CPU   4181.70s WALL (       7 calls)
     drhodv       :     20.46s CPU      5.43s WALL (       7 calls)

     dynmat0      :      5.76s CPU      1.47s WALL (       2 calls)
     dynmat_us    :      5.76s CPU      1.47s WALL (       2 calls)
     d2ionq       :      0.00s CPU      0.00s WALL (       2 calls)

     dynmat_us    :      5.76s CPU      1.47s WALL (       2 calls)

     phqscf       :   7126.11s CPU   4187.16s WALL (       3 calls)
     solve_linter :   7105.54s CPU   4181.70s WALL (       7 calls)

     solve_linter :   7105.54s CPU   4181.70s WALL (       7 calls)
     dvqpsi_us    :   1056.67s CPU    159.69s WALL (   32412 calls)
     ortho        :      6.48s CPU      2.52s WALL (  143461 calls)
     cgsolve      :   4490.59s CPU   1678.25s WALL (  143461 calls)
     incdrhoscf   :    665.63s CPU   1233.15s WALL (  143461 calls)
     vpsifft      :    198.11s CPU    132.64s WALL (  111049 calls)
     dv_of_drho   :      1.00s CPU      0.31s WALL (      53 calls)
     mix_pot      :      0.48s CPU      0.12s WALL (      32 calls)
     psymdvscf    :      0.92s CPU      0.26s WALL (      32 calls)

     dvqpsi_us    :   1056.67s CPU    159.69s WALL (   32412 calls)
     dvqpsi_us_on :    145.68s CPU     22.97s WALL (   32412 calls)

     cgsolve      :   4490.59s CPU   1678.25s WALL (  143461 calls)
     ch_psi       :   4415.66s CPU   1649.98s WALL ( 1350292 calls)

     ch_psi       :   4415.66s CPU   1649.98s WALL ( 1350292 calls)
     h_psi        :   8513.40s CPU   2186.68s WALL ( 1574242 calls)
     last         :    123.49s CPU     42.65s WALL ( 1350292 calls)

     h_psi        :   8513.40s CPU   2186.68s WALL ( 1574242 calls)
     add_vuspsi   :    197.10s CPU     37.07s WALL ( 1574242 calls)

     incdrhoscf   :    665.63s CPU   1233.15s WALL (  143461 calls)


      General routines
     calbec       :    240.39s CPU     52.88s WALL ( 3108202 calls)
     fft          :      0.77s CPU      0.25s WALL (     624 calls)
     ffts         :    110.05s CPU     16.22s WALL (   32454 calls)
     fftw         :   8226.70s CPU   3182.42s WALL (14688514 calls)
     davcio       :    760.95s CPU    972.52s WALL (  635004 calls)
     write_rec    :      0.29s CPU      0.12s WALL (      39 calls)


     PHONON       :      3h29m CPU      1h22m WALL


   This run was terminated on:   6:41:25   4Dec2023            

=------------------------------------------------------------------------------=
   JOB DONE.
=------------------------------------------------------------------------------=
