
     Program PWSCF v.6.6 starts on  3Dec2023 at 17:31:59 

     This program is part of the open-source Quantum ESPRESSO suite
     for quantum simulation of materials; please cite
         "P. Giannozzi et al., J. Phys.:Condens. Matter 21 395502 (2009);
         "P. Giannozzi et al., J. Phys.:Condens. Matter 29 465901 (2017);
          URL http://www.quantum-espresso.org", 
     in publications or presentations arising from this work. More details at
     http://www.quantum-espresso.org/quote

     Parallel version (MPI), running on     1 processors

     MPI processes distributed on     1 nodes
     Fft bands division:     nmany     =       1
     Waiting for input...
     Reading input from standard input
     Message from routine read_cards :
     DEPRECATED: no units specified in ATOMIC_POSITIONS card
     Message from routine read_cards :
     ATOMIC_POSITIONS: units set to alat

     Current dimensions of program PWSCF are:
     Max number of different atomic species (ntypx) = 10
     Max number of k-points (npk) =  40000
     Max angular momentum in pseudopotentials (lmaxx) =  3

     Subspace diagonalization in iterative solution of the eigenvalue problem:
     a serial algorithm will be used


     G-vector sticks info
     --------------------
     sticks:   dense  smooth     PW     G-vecs:    dense   smooth      PW
     Sum         439     439    151                 6183     6183    1211



     bravais-lattice index     =            2
     lattice parameter (alat)  =      10.3270  a.u.
     unit-cell volume          =     275.3357 (a.u.)^3
     number of atoms/cell      =            2
     number of atomic types    =            1
     number of electrons       =         8.00
     number of Kohn-Sham states=            8
     kinetic-energy cutoff     =      30.0000  Ry
     charge density cutoff     =     120.0000  Ry
     convergence threshold     =      1.0E-06
     mixing beta               =       0.7000
     number of iterations used =            8  plain     mixing
     Exchange-correlation=  SLA  PW   PBX  PBC
                           (   1   4   3   4   0   0   0)

     celldm(1)=  10.327000  celldm(2)=   0.000000  celldm(3)=   0.000000
     celldm(4)=   0.000000  celldm(5)=   0.000000  celldm(6)=   0.000000

     crystal axes: (cart. coord. in units of alat)
               a(1) = (  -0.500000   0.000000   0.500000 )  
               a(2) = (   0.000000   0.500000   0.500000 )  
               a(3) = (  -0.500000   0.500000   0.000000 )  

     reciprocal axes: (cart. coord. in units 2 pi/alat)
               b(1) = ( -1.000000 -1.000000  1.000000 )  
               b(2) = (  1.000000  1.000000  1.000000 )  
               b(3) = ( -1.000000  1.000000 -1.000000 )  


     PseudoPot. # 1 for Si read from file:
     /Users/virgrammid/Desktop/Lab_7/pseudo/Si.rel-pbe-rrkj.UPF
     MD5 check sum: ca11b4d55ae68281b492616f935c6016
     Pseudo is Norm-conserving, Zval =  4.0
     Generated by new atomic code, or converted to UPF format
     Using radial grid of 1141 points,  2 beta functions with: 
                l(1) =   0
                l(2) =   1

     atomic species   valence    mass     pseudopotential
        Si             4.00    28.08600     Si( 1.00)

     48 Sym. Ops., with inversion, found (24 have fractional translation)



   Cartesian axes

     site n.     atom                  positions (alat units)
         1           Si  tau(   1) = (   0.0000000   0.0000000   0.0000000  )
         2           Si  tau(   2) = (   0.2500000   0.2500000   0.2500000  )

     number of k points=   897

     Number of k-points >= 100: set verbosity='high' to print them.

     Dense  grid:     6183 G-vectors     FFT dimensions: (  32,  32,  32)

     Estimated max dynamical RAM per process >      89.12 MB

     Initial potential from superposition of free atoms

     starting charge    7.99890, renormalised to    8.00000
     Starting wfcs are    8 randomized atomic wfcs

     total cpu time spent up to now is      137.3 secs

     Self-consistent Calculation

     iteration #  1     ecut=    30.00 Ry     beta= 0.70
     Davidson diagonalization with overlap
     ethr =  1.00E-02,  avg # of iterations =  4.3

     Threshold (ethr) on eigenvalues was too large:
     Diagonalizing with lowered threshold

     Davidson diagonalization with overlap
     ethr =  6.48E-04,  avg # of iterations =  1.4

     total cpu time spent up to now is     2255.3 secs

     total energy              =     -15.75187011 Ry
     estimated scf accuracy    <       0.05503515 Ry

     iteration #  2     ecut=    30.00 Ry     beta= 0.70
     Davidson diagonalization with overlap
     ethr =  6.88E-04,  avg # of iterations =  1.0

     total cpu time spent up to now is     2617.4 secs

     total energy              =     -15.75423683 Ry
     estimated scf accuracy    <       0.00232045 Ry

     iteration #  3     ecut=    30.00 Ry     beta= 0.70
     Davidson diagonalization with overlap
     ethr =  2.90E-05,  avg # of iterations =  3.7

     total cpu time spent up to now is     3072.5 secs

     total energy              =     -15.75432421 Ry
     estimated scf accuracy    <       0.00005092 Ry

     iteration #  4     ecut=    30.00 Ry     beta= 0.70
     Davidson diagonalization with overlap
     ethr =  6.37E-07,  avg # of iterations =  3.1

     total cpu time spent up to now is     3743.6 secs

     End of self-consistent calculation

     Number of k-points >= 100: set verbosity='high' to print the bands.

     highest occupied, lowest unoccupied level (ev):     6.0362    6.6506

!    total energy              =     -15.75432855 Ry
     estimated scf accuracy    <       0.00000008 Ry

     The total energy is the sum of the following terms:
     one-electron contribution =       4.62955957 Ry
     hartree contribution      =       1.11047641 Ry
     xc contribution           =      -4.80243679 Ry
     ewald contribution        =     -16.69192774 Ry

     convergence has been achieved in   4 iterations

     Writing output data file /Users/virgrammid/Desktop/Lab_7/tmp/si.save/

     init_run     :    542.18s CPU    137.27s WALL (       1 calls)
     electrons    :  10152.11s CPU   3606.35s WALL (       1 calls)

     Called by init_run:
     wfcinit      :    541.78s CPU    137.12s WALL (       1 calls)
     potinit      :      0.02s CPU      0.02s WALL (       1 calls)
     hinit0       :      0.17s CPU      0.04s WALL (       1 calls)

     Called by electrons:
     c_bands      :  10138.76s CPU   3594.59s WALL (       5 calls)
     sum_band     :     13.31s CPU     11.71s WALL (       5 calls)
     v_of_rho     :      0.06s CPU      0.06s WALL (       5 calls)
     mix_rho      :      0.00s CPU      0.00s WALL (       5 calls)

     Called by c_bands:
     init_us_2    :      5.47s CPU      1.63s WALL (    9867 calls)
     cegterg      :  10128.85s CPU   3592.05s WALL (    4485 calls)

     Called by *egterg:
     cdiaghg      :     11.01s CPU      2.77s WALL (   15772 calls)
     h_psi        :   3575.57s CPU   1836.27s WALL (   17566 calls)
     g_psi        :      2.54s CPU      0.58s WALL (   12184 calls)

     Called by h_psi:
     h_psi:calbec :   2165.79s CPU    585.34s WALL (   17566 calls)
     vloc_psi     :    309.47s CPU    961.99s WALL (   17566 calls)
     add_vuspsi   :   1097.51s CPU    288.26s WALL (   17566 calls)

     General routines
     calbec       :   2165.44s CPU    585.25s WALL (   17566 calls)
     fft          :      0.03s CPU      0.03s WALL (      50 calls)
     ffts         :      0.00s CPU      0.00s WALL (       5 calls)
     fftw         :    269.03s CPU    956.88s WALL (  232720 calls)

     Parallel routines

     PWSCF        :      2h58m CPU      1h 2m WALL


   This run was terminated on:  18:34:23   3Dec2023            

=------------------------------------------------------------------------------=
   JOB DONE.
=------------------------------------------------------------------------------=
